5FAKB48_GMX.gro created by acpype (v: 2023.10.27) on Sat Aug 15 15:05:05 2026
 58
    1  UNL   O1    1   2.835   0.310   0.524
    1  UNL   C1    2   2.717   0.310   0.477
    1  UNL   N1    3   2.662   0.192   0.426
    1  UNL   C2    4   2.729   0.064   0.422
    1  UNL   C3    5   2.847   0.061   0.328
    1  UNL   C4    6   2.901  -0.082   0.331
    1  UNL   C5    7   2.950  -0.113   0.468
    1  UNL   C6    8   2.829  -0.116   0.559
    1  UNL   C7    9   2.728  -0.217   0.511
    1  UNL   C8   10   2.681  -0.178   0.373
    1  UNL   C9   11   2.798  -0.180   0.279
    1  UNL  C10   12   2.627  -0.037   0.375
    1  UNL  C11   13   2.773   0.022   0.562
    1  UNL  C12   14   2.639   0.434   0.476
    1  UNL   N2   15   2.680   0.561   0.485
    1  UNL   N3   16   2.576   0.644   0.480
    1  UNL  C13   17   2.585   0.793   0.487
    1  UNL  C14   18   2.455   0.849   0.526
    1  UNL  C15   19   2.446   0.893   0.667
    1  UNL  C16   20   2.344   0.983   0.718
    1  UNL  C17   21   2.344   1.032   0.856
    1  UNL   F1   22   2.306   1.170   0.849
    1  UNL  C18   23   2.461   0.575   0.468
    1  UNL  C19   24   2.329   0.613   0.460
    1  UNL  C20   25   2.233   0.516   0.448
    1  UNL  C21   26   2.267   0.381   0.445
    1  UNL  C22   27   2.401   0.346   0.454
    1  UNL  C23   28   2.500   0.442   0.466
    1  UNL   H1   29   2.563   0.198   0.388
    1  UNL   H2   30   2.815   0.087   0.226
    1  UNL   H3   31   2.924   0.133   0.358
    1  UNL   H4   32   2.986  -0.091   0.262
    1  UNL   H5   33   3.000  -0.211   0.469
    1  UNL   H6   34   3.023  -0.038   0.502
    1  UNL   H7   35   2.858  -0.147   0.661
    1  UNL   H8   36   2.774  -0.317   0.508
    1  UNL   H9   37   2.642  -0.219   0.580
    1  UNL  H10   38   2.604  -0.249   0.341
    1  UNL  H11   39   2.842  -0.281   0.276
    1  UNL  H12   40   2.766  -0.152   0.178
    1  UNL  H13   41   2.595  -0.011   0.273
    1  UNL  H14   42   2.543  -0.035   0.446
    1  UNL  H15   43   2.685   0.024   0.629
    1  UNL  H16   44   2.850   0.092   0.598
    1  UNL  H17   45   2.661   0.822   0.562
    1  UNL  H18   46   2.614   0.833   0.389
    1  UNL  H19   47   2.434   0.935   0.462
    1  UNL  H20   48   2.382   0.767   0.514
    1  UNL  H21   49   2.437   0.801   0.727
    1  UNL  H22   50   2.536   0.956   0.675
    1  UNL  H23   51   2.347   1.072   0.654
    1  UNL  H24   52   2.254   0.919   0.716
    1  UNL  H25   53   2.271   0.976   0.917
    1  UNL  H26   54   2.442   1.019   0.904
    1  UNL  H27   55   2.302   0.720   0.462
    1  UNL  H28   56   2.127   0.545   0.442
    1  UNL  H29   57   2.189   0.303   0.436
    1  UNL  H30   58   2.429   0.240   0.452
   17.91600    29.73400    14.78200
