; 5FAKB48_GMX_OPLS.top created by acpype (v: 2023.10.27) on Sat Aug 15 15:05:05 2026

; Include forcefield parameters
#include "ffoplsaa.itp"

; Include 5FAKB48_GMX.itp topology
#include "5FAKB48_GMX.itp"

; Ligand position restraints
#ifdef POSRES_LIG
#include "posre_5FAKB48.itp"
#endif

[ system ]
 5FAKB48

[ molecules ]
; Compound        nmols
 5FAKB48          1     
