; 5FAKB48_GMX_OPLS.itp created by acpype (v: 2023.10.27) on Sat Aug 15 15:05:05 2026

; For OPLS atomtypes manual fine tuning
; AC_at:OPLS_at:OPLScode: Possible_Alternatives (see ffoplsaa.atp and ffoplsaanb.itp)
; o:O:opls_236: ['272']
; c:C:opls_235: ['271']
; ns:x:opls_x: []
; c6:x:opls_x: []
; cc:C*:opls_500: ['506', '507', '508', '514']
; nd:NB:opls_511: []
; na:NA:opls_503: ['512']
; c3:CT:opls_135: ['136', '137', '149', '157', '158', '206', '209', '210', '223B', '224B', '245', '246', '274', '283', '284', '285', '292', '292B', '293B', '296', '307', '308', '505']
; f:x:opls_x: []
; ca:CA:opls_145: ['166', '501', '502']
; hn:H:opls_240: ['241', '290', '301', '304', '310', '504', '513']
; hc:HC:opls_140: []
; h1:HC:opls_140: []
; ha:HA:opls_146: []

[ moleculetype ]
;name            nrexcl
 5FAKB48          3

[ atoms ]
;   nr  type  resi  res  atom  cgnr     charge      mass       ; qtot   bond_type
     1 opls_236     1   UNL    O1    1    -0.588100     15.99940 ; qtot -0.588  O   
     2 opls_235     1   UNL    C1    2     0.625801     12.01100 ; qtot  0.038  C   
     3 opls_x     1   UNL    N1    3    -0.566900      0.00000 ; qtot -0.529  x   
     4 opls_x     1   UNL    C2    4     0.132400      0.00000 ; qtot -0.397  x   
     5 opls_x     1   UNL    C3    5    -0.084067      0.00000 ; qtot -0.481  x   
     6 opls_x     1   UNL    C4    6    -0.058367      0.00000 ; qtot -0.539  x   
     7 opls_x     1   UNL    C5    7    -0.072067      0.00000 ; qtot -0.611  x   
     8 opls_x     1   UNL    C6    8    -0.058367      0.00000 ; qtot -0.670  x   
     9 opls_x     1   UNL    C7    9    -0.072067      0.00000 ; qtot -0.742  x   
    10 opls_x     1   UNL    C8   10    -0.058367      0.00000 ; qtot -0.800  x   
    11 opls_x     1   UNL    C9   11    -0.072067      0.00000 ; qtot -0.872  x   
    12 opls_x     1   UNL   C10   12    -0.084067      0.00000 ; qtot -0.956  x   
    13 opls_x     1   UNL   C11   13    -0.084067      0.00000 ; qtot -1.040  x   
    14 opls_500     1   UNL   C12   14     0.283900     12.01100 ; qtot -0.756  C*  
    15 opls_511     1   UNL    N2   15    -0.447100     14.00670 ; qtot -1.204  NB  
    16 opls_503     1   UNL    N3   16     0.093900     14.00670 ; qtot -1.110  NA  
    17 opls_135     1   UNL   C13   17     0.060300     12.01100 ; qtot -1.049  CT  
    18 opls_135     1   UNL   C14   18    -0.101400     12.01100 ; qtot -1.151  CT  
    19 opls_135     1   UNL   C15   19    -0.082400     12.01100 ; qtot -1.233  CT  
    20 opls_135     1   UNL   C16   20    -0.115400     12.01100 ; qtot -1.349  CT  
    21 opls_135     1   UNL   C17   21     0.157900     12.01100 ; qtot -1.191  CT  
    22 opls_x     1   UNL    F1   22    -0.249300      0.00000 ; qtot -1.440  x   
    23 opls_145     1   UNL   C18   23    -0.055200     12.01100 ; qtot -1.495  CA  
    24 opls_145     1   UNL   C19   24    -0.135000     12.01100 ; qtot -1.630  CA  
    25 opls_145     1   UNL   C20   25    -0.101000     12.01100 ; qtot -1.731  CA  
    26 opls_145     1   UNL   C21   26    -0.154000     12.01100 ; qtot -1.885  CA  
    27 opls_145     1   UNL   C22   27    -0.071000     12.01100 ; qtot -1.956  CA  
    28 opls_145     1   UNL   C23   28    -0.194900     12.01100 ; qtot -2.151  CA  
    29 opls_240     1   UNL    H1   29     0.314500      1.00800 ; qtot -1.837  H   
    30 opls_140     1   UNL    H2   30     0.053200      1.00800 ; qtot -1.783  HC  
    31 opls_140     1   UNL    H3   31     0.053200      1.00800 ; qtot -1.730  HC  
    32 opls_140     1   UNL    H4   32     0.050700      1.00800 ; qtot -1.679  HC  
    33 opls_140     1   UNL    H5   33     0.042867      1.00800 ; qtot -1.637  HC  
    34 opls_140     1   UNL    H6   34     0.042867      1.00800 ; qtot -1.594  HC  
    35 opls_140     1   UNL    H7   35     0.050700      1.00800 ; qtot -1.543  HC  
    36 opls_140     1   UNL    H8   36     0.042867      1.00800 ; qtot -1.500  HC  
    37 opls_140     1   UNL    H9   37     0.042867      1.00800 ; qtot -1.457  HC  
    38 opls_140     1   UNL   H10   38     0.050700      1.00800 ; qtot -1.407  HC  
    39 opls_140     1   UNL   H11   39     0.042867      1.00800 ; qtot -1.364  HC  
    40 opls_140     1   UNL   H12   40     0.042867      1.00800 ; qtot -1.321  HC  
    41 opls_140     1   UNL   H13   41     0.053200      1.00800 ; qtot -1.268  HC  
    42 opls_140     1   UNL   H14   42     0.053200      1.00800 ; qtot -1.214  HC  
    43 opls_140     1   UNL   H15   43     0.053200      1.00800 ; qtot -1.161  HC  
    44 opls_140     1   UNL   H16   44     0.053200      1.00800 ; qtot -1.108  HC  
    45 opls_140     1   UNL   H17   45     0.068700      1.00800 ; qtot -1.039  HC  
    46 opls_140     1   UNL   H18   46     0.068700      1.00800 ; qtot -0.971  HC  
    47 opls_140     1   UNL   H19   47     0.054200      1.00800 ; qtot -0.916  HC  
    48 opls_140     1   UNL   H20   48     0.054200      1.00800 ; qtot -0.862  HC  
    49 opls_140     1   UNL   H21   49     0.056700      1.00800 ; qtot -0.806  HC  
    50 opls_140     1   UNL   H22   50     0.056700      1.00800 ; qtot -0.749  HC  
    51 opls_140     1   UNL   H23   51     0.052700      1.00800 ; qtot -0.696  HC  
    52 opls_140     1   UNL   H24   52     0.052700      1.00800 ; qtot -0.643  HC  
    53 opls_140     1   UNL   H25   53     0.045200      1.00800 ; qtot -0.598  HC  
    54 opls_140     1   UNL   H26   54     0.045200      1.00800 ; qtot -0.553  HC  
    55 opls_146     1   UNL   H27   55     0.139000      1.00800 ; qtot -0.414  HA  
    56 opls_146     1   UNL   H28   56     0.135000      1.00800 ; qtot -0.279  HA  
    57 opls_146     1   UNL   H29   57     0.136000      1.00800 ; qtot -0.143  HA  
    58 opls_146     1   UNL   H30   58     0.143000      1.00800 ; qtot -0.000  HA  

[ bonds ]
;   ai     aj funct   r             k
     1      2   1 ;    1.2190e-01    4.9421e+05 ;     O1 - C1          O - C     
     2      3   1 ;    1.3798e-01    2.8122e+05 ;     C1 - N1          C - x     
     2     14   1 ;    1.4687e-01    2.3579e+05 ;     C1 - C12         C - C*    
     3      4   1 ;    1.4605e-01    2.1554e+05 ;     N1 - C2          x - x     
     3     29   1 ;    1.0132e-01    3.9630e+05 ;     N1 - H1          x - H     
     4      5   1 ;    1.5384e-01    1.8979e+05 ;     C2 - C3          x - x     
     4     12   1 ;    1.5384e-01    1.8979e+05 ;     C2 - C10         x - x     
     4     13   1 ;    1.5384e-01    1.8979e+05 ;     C2 - C11         x - x     
     5      6   1 ;    1.5384e-01    1.8979e+05 ;     C3 - C4          x - x     
     5     30   1 ;    1.0979e-01    2.8681e+05 ;     C3 - H2          x - HC    
     5     31   1 ;    1.0979e-01    2.8681e+05 ;     C3 - H3          x - HC    
     6      7   1 ;    1.5384e-01    1.8979e+05 ;     C4 - C5          x - x     
     6     11   1 ;    1.5384e-01    1.8979e+05 ;     C4 - C9          x - x     
     6     32   1 ;    1.0979e-01    2.8681e+05 ;     C4 - H4          x - HC    
     7      8   1 ;    1.5384e-01    1.8979e+05 ;     C5 - C6          x - x     
     7     33   1 ;    1.0979e-01    2.8681e+05 ;     C5 - H5          x - HC    
     7     34   1 ;    1.0979e-01    2.8681e+05 ;     C5 - H6          x - HC    
     8      9   1 ;    1.5384e-01    1.8979e+05 ;     C6 - C7          x - x     
     8     13   1 ;    1.5384e-01    1.8979e+05 ;     C6 - C11         x - x     
     8     35   1 ;    1.0979e-01    2.8681e+05 ;     C6 - H7          x - HC    
     9     10   1 ;    1.5384e-01    1.8979e+05 ;     C7 - C8          x - x     
     9     36   1 ;    1.0979e-01    2.8681e+05 ;     C7 - H8          x - HC    
     9     37   1 ;    1.0979e-01    2.8681e+05 ;     C7 - H9          x - HC    
    10     11   1 ;    1.5384e-01    1.8979e+05 ;     C8 - C9          x - x     
    10     12   1 ;    1.5384e-01    1.8979e+05 ;     C8 - C10         x - x     
    10     38   1 ;    1.0979e-01    2.8681e+05 ;     C8 - H10         x - HC    
    11     39   1 ;    1.0979e-01    2.8681e+05 ;     C9 - H11         x - HC    
    11     40   1 ;    1.0979e-01    2.8681e+05 ;     C9 - H12         x - HC    
    12     41   1 ;    1.0979e-01    2.8681e+05 ;    C10 - H13         x - HC    
    12     42   1 ;    1.0979e-01    2.8681e+05 ;    C10 - H14         x - HC    
    13     43   1 ;    1.0979e-01    2.8681e+05 ;    C11 - H15         x - HC    
    13     44   1 ;    1.0979e-01    2.8681e+05 ;    C11 - H16         x - HC    
    14     15   1 ;    1.3158e-01    3.5122e+05 ;    C12 - N2         C* - NB    
    14     28   1 ;    1.4528e-01    2.4811e+05 ;    C12 - C23        C* - CA    
    15     16   1 ;    1.3570e-01    2.4302e+05 ;     N2 - N3         NB - NA    
    16     17   1 ;    1.4639e-01    2.1321e+05 ;     N3 - C13        NA - CT    
    16     23   1 ;    1.3858e-01    2.7557e+05 ;     N3 - C18        NA - CA    
    17     18   1 ;    1.5354e-01    1.9154e+05 ;    C13 - C14        CT - CT    
    17     45   1 ;    1.0969e-01    2.8804e+05 ;    C13 - H17        CT - HC    
    17     46   1 ;    1.0969e-01    2.8804e+05 ;    C13 - H18        CT - HC    
    18     19   1 ;    1.5354e-01    1.9154e+05 ;    C14 - C15        CT - CT    
    18     47   1 ;    1.0962e-01    2.8891e+05 ;    C14 - H19        CT - HC    
    18     48   1 ;    1.0962e-01    2.8891e+05 ;    C14 - H20        CT - HC    
    19     20   1 ;    1.5354e-01    1.9154e+05 ;    C15 - C16        CT - CT    
    19     49   1 ;    1.0962e-01    2.8891e+05 ;    C15 - H21        CT - HC    
    19     50   1 ;    1.0962e-01    2.8891e+05 ;    C15 - H22        CT - HC    
    20     21   1 ;    1.5354e-01    1.9154e+05 ;    C16 - C17        CT - CT    
    20     51   1 ;    1.0962e-01    2.8891e+05 ;    C16 - H23        CT - HC    
    20     52   1 ;    1.0962e-01    2.8891e+05 ;    C16 - H24        CT - HC    
    21     22   1 ;    1.3512e-01    2.7973e+05 ;    C17 - F1         CT - x     
    21     53   1 ;    1.0969e-01    2.8804e+05 ;    C17 - H25        CT - HC    
    21     54   1 ;    1.0969e-01    2.8804e+05 ;    C17 - H26        CT - HC    
    23     24   1 ;    1.3986e-01    2.9644e+05 ;    C18 - C19        CA - CA    
    23     28   1 ;    1.3986e-01    2.9644e+05 ;    C18 - C23        CA - CA    
    24     25   1 ;    1.3986e-01    2.9644e+05 ;    C19 - C20        CA - CA    
    24     55   1 ;    1.0860e-01    3.0183e+05 ;    C19 - H27        CA - HA    
    25     26   1 ;    1.3986e-01    2.9644e+05 ;    C20 - C21        CA - CA    
    25     56   1 ;    1.0860e-01    3.0183e+05 ;    C20 - H28        CA - HA    
    26     27   1 ;    1.3986e-01    2.9644e+05 ;    C21 - C22        CA - CA    
    26     57   1 ;    1.0860e-01    3.0183e+05 ;    C21 - H29        CA - HA    
    27     28   1 ;    1.3986e-01    2.9644e+05 ;    C22 - C23        CA - CA    
    27     58   1 ;    1.0860e-01    3.0183e+05 ;    C22 - H30        CA - HA    

[ pairs ]
;   ai     aj    funct
     1      4      1 ;     O1 - C2    
     1     15      1 ;     O1 - N2    
     1     28      1 ;     O1 - C23   
     1     29      1 ;     O1 - H1    
     2      5      1 ;     C1 - C3    
     2     12      1 ;     C1 - C10   
     2     13      1 ;     C1 - C11   
     2     16      1 ;     C1 - N3    
     2     23      1 ;     C1 - C18   
     2     27      1 ;     C1 - C22   
     3      6      1 ;     N1 - C4    
     3      8      1 ;     N1 - C6    
     3     10      1 ;     N1 - C8    
     3     15      1 ;     N1 - N2    
     3     28      1 ;     N1 - C23   
     3     30      1 ;     N1 - H2    
     3     31      1 ;     N1 - H3    
     3     41      1 ;     N1 - H13   
     3     42      1 ;     N1 - H14   
     3     43      1 ;     N1 - H15   
     3     44      1 ;     N1 - H16   
     4      7      1 ;     C2 - C5    
     4      9      1 ;     C2 - C7    
     4     11      1 ;     C2 - C9    
     4     14      1 ;     C2 - C12   
     4     32      1 ;     C2 - H4    
     4     35      1 ;     C2 - H7    
     4     38      1 ;     C2 - H10   
     5      8      1 ;     C3 - C6    
     5     10      1 ;     C3 - C8    
     5     29      1 ;     C3 - H1    
     5     33      1 ;     C3 - H5    
     5     34      1 ;     C3 - H6    
     5     39      1 ;     C3 - H11   
     5     40      1 ;     C3 - H12   
     5     41      1 ;     C3 - H13   
     5     42      1 ;     C3 - H14   
     5     43      1 ;     C3 - H15   
     5     44      1 ;     C3 - H16   
     6      9      1 ;     C4 - C7    
     6     12      1 ;     C4 - C10   
     6     13      1 ;     C4 - C11   
     6     35      1 ;     C4 - H7    
     6     38      1 ;     C4 - H10   
     7     10      1 ;     C5 - C8    
     7     30      1 ;     C5 - H2    
     7     31      1 ;     C5 - H3    
     7     36      1 ;     C5 - H8    
     7     37      1 ;     C5 - H9    
     7     39      1 ;     C5 - H11   
     7     40      1 ;     C5 - H12   
     7     43      1 ;     C5 - H15   
     7     44      1 ;     C5 - H16   
     8     11      1 ;     C6 - C9    
     8     12      1 ;     C6 - C10   
     8     32      1 ;     C6 - H4    
     8     38      1 ;     C6 - H10   
     9     33      1 ;     C7 - H5    
     9     34      1 ;     C7 - H6    
     9     39      1 ;     C7 - H11   
     9     40      1 ;     C7 - H12   
     9     41      1 ;     C7 - H13   
     9     42      1 ;     C7 - H14   
     9     43      1 ;     C7 - H15   
     9     44      1 ;     C7 - H16   
    10     13      1 ;     C8 - C11   
    10     32      1 ;     C8 - H4    
    10     35      1 ;     C8 - H7    
    11     30      1 ;     C9 - H2    
    11     31      1 ;     C9 - H3    
    11     33      1 ;     C9 - H5    
    11     34      1 ;     C9 - H6    
    11     36      1 ;     C9 - H8    
    11     37      1 ;     C9 - H9    
    11     41      1 ;     C9 - H13   
    11     42      1 ;     C9 - H14   
    12     29      1 ;    C10 - H1    
    12     30      1 ;    C10 - H2    
    12     31      1 ;    C10 - H3    
    12     36      1 ;    C10 - H8    
    12     37      1 ;    C10 - H9    
    12     39      1 ;    C10 - H11   
    12     40      1 ;    C10 - H12   
    12     43      1 ;    C10 - H15   
    12     44      1 ;    C10 - H16   
    13     29      1 ;    C11 - H1    
    13     30      1 ;    C11 - H2    
    13     31      1 ;    C11 - H3    
    13     33      1 ;    C11 - H5    
    13     34      1 ;    C11 - H6    
    13     36      1 ;    C11 - H8    
    13     37      1 ;    C11 - H9    
    13     41      1 ;    C11 - H13   
    13     42      1 ;    C11 - H14   
    14     17      1 ;    C12 - C13   
    14     24      1 ;    C12 - C19   
    14     26      1 ;    C12 - C21   
    14     29      1 ;    C12 - H1    
    14     58      1 ;    C12 - H30   
    15     18      1 ;     N2 - C14   
    15     24      1 ;     N2 - C19   
    15     27      1 ;     N2 - C22   
    15     45      1 ;     N2 - H17   
    15     46      1 ;     N2 - H18   
    16     19      1 ;     N3 - C15   
    16     25      1 ;     N3 - C20   
    16     27      1 ;     N3 - C22   
    16     47      1 ;     N3 - H19   
    16     48      1 ;     N3 - H20   
    16     55      1 ;     N3 - H27   
    17     20      1 ;    C13 - C16   
    17     24      1 ;    C13 - C19   
    17     28      1 ;    C13 - C23   
    17     49      1 ;    C13 - H21   
    17     50      1 ;    C13 - H22   
    18     21      1 ;    C14 - C17   
    18     23      1 ;    C14 - C18   
    18     51      1 ;    C14 - H23   
    18     52      1 ;    C14 - H24   
    19     22      1 ;    C15 - F1    
    19     45      1 ;    C15 - H17   
    19     46      1 ;    C15 - H18   
    19     53      1 ;    C15 - H25   
    19     54      1 ;    C15 - H26   
    20     47      1 ;    C16 - H19   
    20     48      1 ;    C16 - H20   
    21     49      1 ;    C17 - H21   
    21     50      1 ;    C17 - H22   
    22     51      1 ;     F1 - H23   
    22     52      1 ;     F1 - H24   
    23     26      1 ;    C18 - C21   
    23     45      1 ;    C18 - H17   
    23     46      1 ;    C18 - H18   
    23     56      1 ;    C18 - H28   
    23     58      1 ;    C18 - H30   
    24     27      1 ;    C19 - C22   
    24     57      1 ;    C19 - H29   
    25     28      1 ;    C20 - C23   
    25     58      1 ;    C20 - H30   
    26     55      1 ;    C21 - H27   
    27     56      1 ;    C22 - H28   
    28     55      1 ;    C23 - H27   
    28     57      1 ;    C23 - H29   
    30     32      1 ;     H2 - H4    
    31     32      1 ;     H3 - H4    
    32     33      1 ;     H4 - H5    
    32     34      1 ;     H4 - H6    
    32     39      1 ;     H4 - H11   
    32     40      1 ;     H4 - H12   
    33     35      1 ;     H5 - H7    
    34     35      1 ;     H6 - H7    
    35     36      1 ;     H7 - H8    
    35     37      1 ;     H7 - H9    
    35     43      1 ;     H7 - H15   
    35     44      1 ;     H7 - H16   
    36     38      1 ;     H8 - H10   
    37     38      1 ;     H9 - H10   
    38     39      1 ;    H10 - H11   
    38     40      1 ;    H10 - H12   
    38     41      1 ;    H10 - H13   
    38     42      1 ;    H10 - H14   
    45     47      1 ;    H17 - H19   
    45     48      1 ;    H17 - H20   
    46     47      1 ;    H18 - H19   
    46     48      1 ;    H18 - H20   
    47     49      1 ;    H19 - H21   
    47     50      1 ;    H19 - H22   
    48     49      1 ;    H20 - H21   
    48     50      1 ;    H20 - H22   
    49     51      1 ;    H21 - H23   
    49     52      1 ;    H21 - H24   
    50     51      1 ;    H22 - H23   
    50     52      1 ;    H22 - H24   
    51     53      1 ;    H23 - H25   
    51     54      1 ;    H23 - H26   
    52     53      1 ;    H24 - H25   
    52     54      1 ;    H24 - H26   
    55     56      1 ;    H27 - H28   
    56     57      1 ;    H28 - H29   
    57     58      1 ;    H29 - H30   

[ angles ]
;   ai     aj     ak    funct   theta         cth
     1      2      3      1 ;    1.2305e+02    7.2977e+02 ;     O1 - C1   - N1        O -    C - x   
     1      2     14      1 ;    1.2406e+02    6.5572e+02 ;     O1 - C1   - C12       O -    C - C*  
     2      3      4      1 ;    1.2334e+02    6.3865e+02 ;     C1 - N1   - C2        C -    x - x   
     2      3     29      1 ;    1.1726e+02    4.8007e+02 ;     C1 - N1   - H1        C -    x - H   
     2     14     15      1 ;    1.2440e+02    5.5471e+02 ;     C1 - C12  - N2        C -   C* - NB  
     2     14     28      1 ;    1.2305e+02    5.0384e+02 ;     C1 - C12  - C23       C -   C* - CA  
     3      2     14      1 ;    1.1288e+02    5.7162e+02 ;     N1 - C1   - C12       x -    C - C*  
     3      4      5      1 ;    1.1113e+02    5.4752e+02 ;     N1 - C2   - C3        x -    x - x   
     3      4     12      1 ;    1.1113e+02    5.4752e+02 ;     N1 - C2   - C10       x -    x - x   
     3      4     13      1 ;    1.1113e+02    5.4752e+02 ;     N1 - C2   - C11       x -    x - x   
     4      3     29      1 ;    1.1749e+02    4.5547e+02 ;     C2 - N1   - H1        x -    x - H   
     4      5      6      1 ;    1.1106e+02    5.0359e+02 ;     C2 - C3   - C4        x -    x - x   
     4      5     30      1 ;    1.0945e+02    3.6175e+02 ;     C2 - C3   - H2        x -    x - HC  
     4      5     31      1 ;    1.0945e+02    3.6175e+02 ;     C2 - C3   - H3        x -    x - HC  
     4     12     10      1 ;    1.1106e+02    5.0359e+02 ;     C2 - C10  - C8        x -    x - x   
     4     12     41      1 ;    1.0945e+02    3.6175e+02 ;     C2 - C10  - H13       x -    x - HC  
     4     12     42      1 ;    1.0945e+02    3.6175e+02 ;     C2 - C10  - H14       x -    x - HC  
     4     13      8      1 ;    1.1106e+02    5.0359e+02 ;     C2 - C11  - C6        x -    x - x   
     4     13     43      1 ;    1.0945e+02    3.6175e+02 ;     C2 - C11  - H15       x -    x - HC  
     4     13     44      1 ;    1.0945e+02    3.6175e+02 ;     C2 - C11  - H16       x -    x - HC  
     5      4     12      1 ;    1.1106e+02    5.0359e+02 ;     C3 - C2   - C10       x -    x - x   
     5      4     13      1 ;    1.1106e+02    5.0359e+02 ;     C3 - C2   - C11       x -    x - x   
     5      6      7      1 ;    1.1106e+02    5.0359e+02 ;     C3 - C4   - C5        x -    x - x   
     5      6     11      1 ;    1.1106e+02    5.0359e+02 ;     C3 - C4   - C9        x -    x - x   
     5      6     32      1 ;    1.0945e+02    3.6175e+02 ;     C3 - C4   - H4        x -    x - HC  
     6      5     30      1 ;    1.0945e+02    3.6175e+02 ;     C4 - C3   - H2        x -    x - HC  
     6      5     31      1 ;    1.0945e+02    3.6175e+02 ;     C4 - C3   - H3        x -    x - HC  
     6      7      8      1 ;    1.1106e+02    5.0359e+02 ;     C4 - C5   - C6        x -    x - x   
     6      7     33      1 ;    1.0945e+02    3.6175e+02 ;     C4 - C5   - H5        x -    x - HC  
     6      7     34      1 ;    1.0945e+02    3.6175e+02 ;     C4 - C5   - H6        x -    x - HC  
     6     11     10      1 ;    1.1106e+02    5.0359e+02 ;     C4 - C9   - C8        x -    x - x   
     6     11     39      1 ;    1.0945e+02    3.6175e+02 ;     C4 - C9   - H11       x -    x - HC  
     6     11     40      1 ;    1.0945e+02    3.6175e+02 ;     C4 - C9   - H12       x -    x - HC  
     7      6     11      1 ;    1.1106e+02    5.0359e+02 ;     C5 - C4   - C9        x -    x - x   
     7      6     32      1 ;    1.0945e+02    3.6175e+02 ;     C5 - C4   - H4        x -    x - HC  
     7      8      9      1 ;    1.1106e+02    5.0359e+02 ;     C5 - C6   - C7        x -    x - x   
     7      8     13      1 ;    1.1106e+02    5.0359e+02 ;     C5 - C6   - C11       x -    x - x   
     7      8     35      1 ;    1.0945e+02    3.6175e+02 ;     C5 - C6   - H7        x -    x - HC  
     8      7     33      1 ;    1.0945e+02    3.6175e+02 ;     C6 - C5   - H5        x -    x - HC  
     8      7     34      1 ;    1.0945e+02    3.6175e+02 ;     C6 - C5   - H6        x -    x - HC  
     8      9     10      1 ;    1.1106e+02    5.0359e+02 ;     C6 - C7   - C8        x -    x - x   
     8      9     36      1 ;    1.0945e+02    3.6175e+02 ;     C6 - C7   - H8        x -    x - HC  
     8      9     37      1 ;    1.0945e+02    3.6175e+02 ;     C6 - C7   - H9        x -    x - HC  
     8     13     43      1 ;    1.0945e+02    3.6175e+02 ;     C6 - C11  - H15       x -    x - HC  
     8     13     44      1 ;    1.0945e+02    3.6175e+02 ;     C6 - C11  - H16       x -    x - HC  
     9      8     13      1 ;    1.1106e+02    5.0359e+02 ;     C7 - C6   - C11       x -    x - x   
     9      8     35      1 ;    1.0945e+02    3.6175e+02 ;     C7 - C6   - H7        x -    x - HC  
     9     10     11      1 ;    1.1106e+02    5.0359e+02 ;     C7 - C8   - C9        x -    x - x   
     9     10     12      1 ;    1.1106e+02    5.0359e+02 ;     C7 - C8   - C10       x -    x - x   
     9     10     38      1 ;    1.0945e+02    3.6175e+02 ;     C7 - C8   - H10       x -    x - HC  
    10      9     36      1 ;    1.0945e+02    3.6175e+02 ;     C8 - C7   - H8        x -    x - HC  
    10      9     37      1 ;    1.0945e+02    3.6175e+02 ;     C8 - C7   - H9        x -    x - HC  
    10     11     39      1 ;    1.0945e+02    3.6175e+02 ;     C8 - C9   - H11       x -    x - HC  
    10     11     40      1 ;    1.0945e+02    3.6175e+02 ;     C8 - C9   - H12       x -    x - HC  
    10     12     41      1 ;    1.0945e+02    3.6175e+02 ;     C8 - C10  - H13       x -    x - HC  
    10     12     42      1 ;    1.0945e+02    3.6175e+02 ;     C8 - C10  - H14       x -    x - HC  
    11      6     32      1 ;    1.0945e+02    3.6175e+02 ;     C9 - C4   - H4        x -    x - HC  
    11     10     12      1 ;    1.1106e+02    5.0359e+02 ;     C9 - C8   - C10       x -    x - x   
    11     10     38      1 ;    1.0945e+02    3.6175e+02 ;     C9 - C8   - H10       x -    x - HC  
    12      4     13      1 ;    1.1106e+02    5.0359e+02 ;    C10 - C2   - C11       x -    x - x   
    12     10     38      1 ;    1.0945e+02    3.6175e+02 ;    C10 - C8   - H10       x -    x - HC  
    13      8     35      1 ;    1.0945e+02    3.6175e+02 ;    C11 - C6   - H7        x -    x - HC  
    14     15     16      1 ;    1.0384e+02    7.8609e+02 ;    C12 - N2   - N3       C* -   NB - NA  
    14     28     23      1 ;    1.2091e+02    5.2041e+02 ;    C12 - C23  - C18      C* -   CA - CA  
    14     28     27      1 ;    1.2091e+02    5.2041e+02 ;    C12 - C23  - C22      C* -   CA - CA  
    15     14     28      1 ;    1.2341e+02    5.6082e+02 ;     N2 - C12  - C23      NB -   C* - CA  
    15     16     17      1 ;    1.1987e+02    6.9162e+02 ;     N2 - N3   - C13      NB -   NA - CT  
    15     16     23      1 ;    1.1951e+02    7.1421e+02 ;     N2 - N3   - C18      NB -   NA - CA  
    16     17     18      1 ;    1.1263e+02    5.4392e+02 ;     N3 - C13  - C14      NA -   CT - CT  
    16     17     45      1 ;    1.0876e+02    4.0250e+02 ;     N3 - C13  - H17      NA -   CT - HC  
    16     17     46      1 ;    1.0876e+02    4.0250e+02 ;     N3 - C13  - H18      NA -   CT - HC  
    16     23     24      1 ;    1.2031e+02    5.6752e+02 ;     N3 - C18  - C19      NA -   CA - CA  
    16     23     28      1 ;    1.2031e+02    5.6752e+02 ;     N3 - C18  - C23      NA -   CA - CA  
    17     16     23      1 ;    1.2050e+02    6.4408e+02 ;    C13 - N3   - C18      CT -   NA - CA  
    17     18     19      1 ;    1.1263e+02    5.0099e+02 ;    C13 - C14  - C15      CT -   CT - CT  
    17     18     47      1 ;    1.0968e+02    3.6208e+02 ;    C13 - C14  - H19      CT -   CT - HC  
    17     18     48      1 ;    1.0968e+02    3.6208e+02 ;    C13 - C14  - H20      CT -   CT - HC  
    18     17     45      1 ;    1.0959e+02    3.6217e+02 ;    C14 - C13  - H17      CT -   CT - HC  
    18     17     46      1 ;    1.0959e+02    3.6217e+02 ;    C14 - C13  - H18      CT -   CT - HC  
    18     19     20      1 ;    1.1263e+02    5.0099e+02 ;    C14 - C15  - C16      CT -   CT - CT  
    18     19     49      1 ;    1.0968e+02    3.6208e+02 ;    C14 - C15  - H21      CT -   CT - HC  
    18     19     50      1 ;    1.0968e+02    3.6208e+02 ;    C14 - C15  - H22      CT -   CT - HC  
    19     18     47      1 ;    1.0968e+02    3.6208e+02 ;    C15 - C14  - H19      CT -   CT - HC  
    19     18     48      1 ;    1.0968e+02    3.6208e+02 ;    C15 - C14  - H20      CT -   CT - HC  
    19     20     21      1 ;    1.1263e+02    5.0099e+02 ;    C15 - C16  - C17      CT -   CT - CT  
    19     20     51      1 ;    1.0968e+02    3.6208e+02 ;    C15 - C16  - H23      CT -   CT - HC  
    19     20     52      1 ;    1.0968e+02    3.6208e+02 ;    C15 - C16  - H24      CT -   CT - HC  
    20     19     49      1 ;    1.0968e+02    3.6208e+02 ;    C16 - C15  - H21      CT -   CT - HC  
    20     19     50      1 ;    1.0968e+02    3.6208e+02 ;    C16 - C15  - H22      CT -   CT - HC  
    20     21     22      1 ;    1.0948e+02    6.6408e+02 ;    C16 - C17  - F1       CT -   CT - x   
    20     21     53      1 ;    1.0959e+02    3.6217e+02 ;    C16 - C17  - H25      CT -   CT - HC  
    20     21     54      1 ;    1.0959e+02    3.6217e+02 ;    C16 - C17  - H26      CT -   CT - HC  
    21     20     51      1 ;    1.0968e+02    3.6208e+02 ;    C17 - C16  - H23      CT -   CT - HC  
    21     20     52      1 ;    1.0968e+02    3.6208e+02 ;    C17 - C16  - H24      CT -   CT - HC  
    22     21     53      1 ;    1.0828e+02    5.0200e+02 ;     F1 - C17  - H25       x -   CT - HC  
    22     21     54      1 ;    1.0828e+02    5.0200e+02 ;     F1 - C17  - H26       x -   CT - HC  
    23     24     25      1 ;    1.2002e+02    5.3279e+02 ;    C18 - C19  - C20      CA -   CA - CA  
    23     24     55      1 ;    1.1988e+02    3.7572e+02 ;    C18 - C19  - H27      CA -   CA - HA  
    23     28     27      1 ;    1.2002e+02    5.3279e+02 ;    C18 - C23  - C22      CA -   CA - CA  
    24     23     28      1 ;    1.2002e+02    5.3279e+02 ;    C19 - C18  - C23      CA -   CA - CA  
    24     25     26      1 ;    1.2002e+02    5.3279e+02 ;    C19 - C20  - C21      CA -   CA - CA  
    24     25     56      1 ;    1.1988e+02    3.7572e+02 ;    C19 - C20  - H28      CA -   CA - HA  
    25     24     55      1 ;    1.1988e+02    3.7572e+02 ;    C20 - C19  - H27      CA -   CA - HA  
    25     26     27      1 ;    1.2002e+02    5.3279e+02 ;    C20 - C21  - C22      CA -   CA - CA  
    25     26     57      1 ;    1.1988e+02    3.7572e+02 ;    C20 - C21  - H29      CA -   CA - HA  
    26     25     56      1 ;    1.1988e+02    3.7572e+02 ;    C21 - C20  - H28      CA -   CA - HA  
    26     27     28      1 ;    1.2002e+02    5.3279e+02 ;    C21 - C22  - C23      CA -   CA - CA  
    26     27     58      1 ;    1.1988e+02    3.7572e+02 ;    C21 - C22  - H30      CA -   CA - HA  
    27     26     57      1 ;    1.1988e+02    3.7572e+02 ;    C22 - C21  - H29      CA -   CA - HA  
    28     27     58      1 ;    1.1988e+02    3.7572e+02 ;    C23 - C22  - H30      CA -   CA - HA  
    30      5     31      1 ;    1.0662e+02    3.0066e+02 ;     H2 - C3   - H3       HC -    x - HC  
    33      7     34      1 ;    1.0662e+02    3.0066e+02 ;     H5 - C5   - H6       HC -    x - HC  
    36      9     37      1 ;    1.0662e+02    3.0066e+02 ;     H8 - C7   - H9       HC -    x - HC  
    39     11     40      1 ;    1.0662e+02    3.0066e+02 ;    H11 - C9   - H12      HC -    x - HC  
    41     12     42      1 ;    1.0662e+02    3.0066e+02 ;    H13 - C10  - H14      HC -    x - HC  
    43     13     44      1 ;    1.0662e+02    3.0066e+02 ;    H15 - C11  - H16      HC -    x - HC  
    45     17     46      1 ;    1.0855e+02    2.9824e+02 ;    H17 - C13  - H18      HC -   CT - HC  
    47     18     48      1 ;    1.0773e+02    2.9957e+02 ;    H19 - C14  - H20      HC -   CT - HC  
    49     19     50      1 ;    1.0773e+02    2.9957e+02 ;    H21 - C15  - H22      HC -   CT - HC  
    51     20     52      1 ;    1.0773e+02    2.9957e+02 ;    H23 - C16  - H24      HC -   CT - HC  
    53     21     54      1 ;    1.0855e+02    2.9824e+02 ;    H25 - C17  - H26      HC -   CT - HC  

[ dihedrals ] ; propers
; for gromacs 4.5 or higher, using funct 9
;    i      j      k      l   func   phase     kd      pn
     1      2      3      4      9 ;   180.00  10.46000   2 ;     O1-    C1-    N1-    C2
     1      2      3     29      9 ;     0.00   8.36800   1 ;     O1-    C1-    N1-    H1
     1      2      3     29      9 ;   180.00  10.46000   2 ;     O1-    C1-    N1-    H1
     1      2     14     15      9 ;   180.00  12.02900   2 ;     O1-    C1-   C12-    N2
     1      2     14     28      9 ;   180.00  12.02900   2 ;     O1-    C1-   C12-   C23
     2      3      4      5      9 ;     0.00   6.65256   1 ;     C1-    N1-    C2-    C3
     2      3      4      5      9 ;   180.00   0.00000   3 ;     C1-    N1-    C2-    C3
     2      3      4      5      9 ;   180.00   1.29704   2 ;     C1-    N1-    C2-    C3
     2      3      4      5      9 ;   180.00   2.38488   4 ;     C1-    N1-    C2-    C3
     2      3      4     12      9 ;     0.00   6.65256   1 ;     C1-    N1-    C2-   C10
     2      3      4     12      9 ;   180.00   0.00000   3 ;     C1-    N1-    C2-   C10
     2      3      4     12      9 ;   180.00   1.29704   2 ;     C1-    N1-    C2-   C10
     2      3      4     12      9 ;   180.00   2.38488   4 ;     C1-    N1-    C2-   C10
     2      3      4     13      9 ;     0.00   6.65256   1 ;     C1-    N1-    C2-   C11
     2      3      4     13      9 ;   180.00   0.00000   3 ;     C1-    N1-    C2-   C11
     2      3      4     13      9 ;   180.00   1.29704   2 ;     C1-    N1-    C2-   C11
     2      3      4     13      9 ;   180.00   2.38488   4 ;     C1-    N1-    C2-   C11
     2     14     15     16      9 ;   180.00  19.87400   2 ;     C1-   C12-    N2-    N3
     2     14     28     23      9 ;   180.00   2.44764   2 ;     C1-   C12-   C23-   C18
     2     14     28     27      9 ;   180.00   2.44764   2 ;     C1-   C12-   C23-   C22
     3      2     14     15      9 ;   180.00  12.02900   2 ;     N1-    C1-   C12-    N2
     3      2     14     28      9 ;   180.00  12.02900   2 ;     N1-    C1-   C12-   C23
     3      4      5      6      9 ;   180.00   0.96232   2 ;     N1-    C2-    C3-    C4
     3      4      5     30      9 ;     0.00   0.65084   3 ;     N1-    C2-    C3-    H2
     3      4      5     31      9 ;     0.00   0.65084   3 ;     N1-    C2-    C3-    H3
     3      4     12     10      9 ;   180.00   0.96232   2 ;     N1-    C2-   C10-    C8
     3      4     12     41      9 ;     0.00   0.65084   3 ;     N1-    C2-   C10-   H13
     3      4     12     42      9 ;     0.00   0.65084   3 ;     N1-    C2-   C10-   H14
     3      4     13      8      9 ;   180.00   0.96232   2 ;     N1-    C2-   C11-    C6
     3      4     13     43      9 ;     0.00   0.65084   3 ;     N1-    C2-   C11-   H15
     3      4     13     44      9 ;     0.00   0.65084   3 ;     N1-    C2-   C11-   H16
     4      3      2     14      9 ;   180.00  10.46000   2 ;     C2-    N1-    C1-   C12
     4      5      6      7      9 ;     0.00   2.17568   3 ;     C2-    C3-    C4-    C5
     4      5      6     11      9 ;     0.00   2.17568   3 ;     C2-    C3-    C4-    C9
     4      5      6     32      9 ;     0.00   0.54392   3 ;     C2-    C3-    C4-    H4
     4     12     10      9      9 ;     0.00   2.17568   3 ;     C2-   C10-    C8-    C7
     4     12     10     11      9 ;     0.00   2.17568   3 ;     C2-   C10-    C8-    C9
     4     12     10     38      9 ;     0.00   0.54392   3 ;     C2-   C10-    C8-   H10
     4     13      8      7      9 ;     0.00   2.17568   3 ;     C2-   C11-    C6-    C5
     4     13      8      9      9 ;     0.00   2.17568   3 ;     C2-   C11-    C6-    C7
     4     13      8     35      9 ;     0.00   0.54392   3 ;     C2-   C11-    C6-    H7
     5      4      3     29      9 ;     0.00   0.00000   0 ;     C3-    C2-    N1-    H1
     5      4     12     10      9 ;     0.00   2.17568   3 ;     C3-    C2-   C10-    C8
     5      4     12     41      9 ;     0.00   0.54392   3 ;     C3-    C2-   C10-   H13
     5      4     12     42      9 ;     0.00   0.54392   3 ;     C3-    C2-   C10-   H14
     5      4     13      8      9 ;     0.00   2.17568   3 ;     C3-    C2-   C11-    C6
     5      4     13     43      9 ;     0.00   0.54392   3 ;     C3-    C2-   C11-   H15
     5      4     13     44      9 ;     0.00   0.54392   3 ;     C3-    C2-   C11-   H16
     5      6      7      8      9 ;     0.00   2.17568   3 ;     C3-    C4-    C5-    C6
     5      6      7     33      9 ;     0.00   0.54392   3 ;     C3-    C4-    C5-    H5
     5      6      7     34      9 ;     0.00   0.54392   3 ;     C3-    C4-    C5-    H6
     5      6     11     10      9 ;     0.00   2.17568   3 ;     C3-    C4-    C9-    C8
     5      6     11     39      9 ;     0.00   0.54392   3 ;     C3-    C4-    C9-   H11
     5      6     11     40      9 ;     0.00   0.54392   3 ;     C3-    C4-    C9-   H12
     6      5      4     12      9 ;     0.00   2.17568   3 ;     C4-    C3-    C2-   C10
     6      5      4     13      9 ;     0.00   2.17568   3 ;     C4-    C3-    C2-   C11
     6      7      8      9      9 ;     0.00   2.17568   3 ;     C4-    C5-    C6-    C7
     6      7      8     13      9 ;     0.00   2.17568   3 ;     C4-    C5-    C6-   C11
     6      7      8     35      9 ;     0.00   0.54392   3 ;     C4-    C5-    C6-    H7
     6     11     10      9      9 ;     0.00   2.17568   3 ;     C4-    C9-    C8-    C7
     6     11     10     12      9 ;     0.00   2.17568   3 ;     C4-    C9-    C8-   C10
     6     11     10     38      9 ;     0.00   0.54392   3 ;     C4-    C9-    C8-   H10
     7      6      5     30      9 ;     0.00   0.54392   3 ;     C5-    C4-    C3-    H2
     7      6      5     31      9 ;     0.00   0.54392   3 ;     C5-    C4-    C3-    H3
     7      6     11     10      9 ;     0.00   2.17568   3 ;     C5-    C4-    C9-    C8
     7      6     11     39      9 ;     0.00   0.54392   3 ;     C5-    C4-    C9-   H11
     7      6     11     40      9 ;     0.00   0.54392   3 ;     C5-    C4-    C9-   H12
     7      8      9     10      9 ;     0.00   2.17568   3 ;     C5-    C6-    C7-    C8
     7      8      9     36      9 ;     0.00   0.54392   3 ;     C5-    C6-    C7-    H8
     7      8      9     37      9 ;     0.00   0.54392   3 ;     C5-    C6-    C7-    H9
     7      8     13     43      9 ;     0.00   0.54392   3 ;     C5-    C6-   C11-   H15
     7      8     13     44      9 ;     0.00   0.54392   3 ;     C5-    C6-   C11-   H16
     8      7      6     11      9 ;     0.00   2.17568   3 ;     C6-    C5-    C4-    C9
     8      7      6     32      9 ;     0.00   0.54392   3 ;     C6-    C5-    C4-    H4
     8      9     10     11      9 ;     0.00   2.17568   3 ;     C6-    C7-    C8-    C9
     8      9     10     12      9 ;     0.00   2.17568   3 ;     C6-    C7-    C8-   C10
     8      9     10     38      9 ;     0.00   0.54392   3 ;     C6-    C7-    C8-   H10
     8     13      4     12      9 ;     0.00   2.17568   3 ;     C6-   C11-    C2-   C10
     9      8      7     33      9 ;     0.00   0.54392   3 ;     C7-    C6-    C5-    H5
     9      8      7     34      9 ;     0.00   0.54392   3 ;     C7-    C6-    C5-    H6
     9      8     13     43      9 ;     0.00   0.54392   3 ;     C7-    C6-   C11-   H15
     9      8     13     44      9 ;     0.00   0.54392   3 ;     C7-    C6-   C11-   H16
     9     10     11     39      9 ;     0.00   0.54392   3 ;     C7-    C8-    C9-   H11
     9     10     11     40      9 ;     0.00   0.54392   3 ;     C7-    C8-    C9-   H12
     9     10     12     41      9 ;     0.00   0.54392   3 ;     C7-    C8-   C10-   H13
     9     10     12     42      9 ;     0.00   0.54392   3 ;     C7-    C8-   C10-   H14
    10      9      8     13      9 ;     0.00   2.17568   3 ;     C8-    C7-    C6-   C11
    10      9      8     35      9 ;     0.00   0.54392   3 ;     C8-    C7-    C6-    H7
    10     11      6     32      9 ;     0.00   0.54392   3 ;     C8-    C9-    C4-    H4
    10     12      4     13      9 ;     0.00   2.17568   3 ;     C8-   C10-    C2-   C11
    11      6      5     30      9 ;     0.00   0.54392   3 ;     C9-    C4-    C3-    H2
    11      6      5     31      9 ;     0.00   0.54392   3 ;     C9-    C4-    C3-    H3
    11      6      7     33      9 ;     0.00   0.54392   3 ;     C9-    C4-    C5-    H5
    11      6      7     34      9 ;     0.00   0.54392   3 ;     C9-    C4-    C5-    H6
    11     10      9     36      9 ;     0.00   0.54392   3 ;     C9-    C8-    C7-    H8
    11     10      9     37      9 ;     0.00   0.54392   3 ;     C9-    C8-    C7-    H9
    11     10     12     41      9 ;     0.00   0.54392   3 ;     C9-    C8-   C10-   H13
    11     10     12     42      9 ;     0.00   0.54392   3 ;     C9-    C8-   C10-   H14
    12      4      3     29      9 ;     0.00   0.00000   0 ;    C10-    C2-    N1-    H1
    12      4      5     30      9 ;     0.00   0.54392   3 ;    C10-    C2-    C3-    H2
    12      4      5     31      9 ;     0.00   0.54392   3 ;    C10-    C2-    C3-    H3
    12      4     13     43      9 ;     0.00   0.54392   3 ;    C10-    C2-   C11-   H15
    12      4     13     44      9 ;     0.00   0.54392   3 ;    C10-    C2-   C11-   H16
    12     10      9     36      9 ;     0.00   0.54392   3 ;    C10-    C8-    C7-    H8
    12     10      9     37      9 ;     0.00   0.54392   3 ;    C10-    C8-    C7-    H9
    12     10     11     39      9 ;     0.00   0.54392   3 ;    C10-    C8-    C9-   H11
    12     10     11     40      9 ;     0.00   0.54392   3 ;    C10-    C8-    C9-   H12
    13      4      3     29      9 ;     0.00   0.00000   0 ;    C11-    C2-    N1-    H1
    13      4      5     30      9 ;     0.00   0.54392   3 ;    C11-    C2-    C3-    H2
    13      4      5     31      9 ;     0.00   0.54392   3 ;    C11-    C2-    C3-    H3
    13      4     12     41      9 ;     0.00   0.54392   3 ;    C11-    C2-   C10-   H13
    13      4     12     42      9 ;     0.00   0.54392   3 ;    C11-    C2-   C10-   H14
    13      8      7     33      9 ;     0.00   0.54392   3 ;    C11-    C6-    C5-    H5
    13      8      7     34      9 ;     0.00   0.54392   3 ;    C11-    C6-    C5-    H6
    13      8      9     36      9 ;     0.00   0.54392   3 ;    C11-    C6-    C7-    H8
    13      8      9     37      9 ;     0.00   0.54392   3 ;    C11-    C6-    C7-    H9
    14      2      3     29      9 ;   180.00  10.46000   2 ;    C12-    C1-    N1-    H1
    14     15     16     17      9 ;   180.00  20.08320   2 ;    C12-    N2-    N3-   C13
    14     15     16     23      9 ;   180.00  20.08320   2 ;    C12-    N2-    N3-   C18
    14     28     23     16      9 ;   180.00  15.16700   2 ;    C12-   C23-   C18-    N3
    14     28     23     24      9 ;   180.00  15.16700   2 ;    C12-   C23-   C18-   C19
    14     28     27     26      9 ;   180.00  15.16700   2 ;    C12-   C23-   C22-   C21
    14     28     27     58      9 ;   180.00  15.16700   2 ;    C12-   C23-   C22-   H30
    15     14     28     23      9 ;   180.00   3.13800   3 ;     N2-   C12-   C23-   C18
    15     14     28     23      9 ;   180.00   3.43088   1 ;     N2-   C12-   C23-   C18
    15     14     28     23      9 ;   180.00   4.18400   2 ;     N2-   C12-   C23-   C18
    15     14     28     27      9 ;   180.00   3.13800   3 ;     N2-   C12-   C23-   C22
    15     14     28     27      9 ;   180.00   3.43088   1 ;     N2-   C12-   C23-   C22
    15     14     28     27      9 ;   180.00   4.18400   2 ;     N2-   C12-   C23-   C22
    15     16     17     18      9 ;     0.00   0.00000   0 ;     N2-    N3-   C13-   C14
    15     16     17     45      9 ;     0.00   0.00000   0 ;     N2-    N3-   C13-   H17
    15     16     17     46      9 ;     0.00   0.00000   0 ;     N2-    N3-   C13-   H18
    15     16     23     24      9 ;   180.00   1.25520   2 ;     N2-    N3-   C18-   C19
    15     16     23     28      9 ;   180.00   1.25520   2 ;     N2-    N3-   C18-   C23
    16     15     14     28      9 ;   180.00  19.87400   2 ;     N3-    N2-   C12-   C23
    16     17     18     19      9 ;     0.00   0.65084   3 ;     N3-   C13-   C14-   C15
    16     17     18     47      9 ;     0.00   0.65084   3 ;     N3-   C13-   C14-   H19
    16     17     18     48      9 ;     0.00   0.65084   3 ;     N3-   C13-   C14-   H20
    16     23     24     25      9 ;   180.00  15.16700   2 ;     N3-   C18-   C19-   C20
    16     23     24     55      9 ;   180.00  15.16700   2 ;     N3-   C18-   C19-   H27
    16     23     28     27      9 ;   180.00  15.16700   2 ;     N3-   C18-   C23-   C22
    17     16     23     24      9 ;   180.00   1.25520   2 ;    C13-    N3-   C18-   C19
    17     16     23     28      9 ;   180.00   1.25520   2 ;    C13-    N3-   C18-   C23
    17     18     19     20      9 ;     0.00   2.17568   3 ;    C13-   C14-   C15-   C16
    17     18     19     49      9 ;     0.00   0.54392   3 ;    C13-   C14-   C15-   H21
    17     18     19     50      9 ;     0.00   0.54392   3 ;    C13-   C14-   C15-   H22
    18     17     16     23      9 ;     0.00   0.00000   0 ;    C14-   C13-    N3-   C18
    18     19     20     21      9 ;     0.00   2.17568   3 ;    C14-   C15-   C16-   C17
    18     19     20     51      9 ;     0.00   0.54392   3 ;    C14-   C15-   C16-   H23
    18     19     20     52      9 ;     0.00   0.54392   3 ;    C14-   C15-   C16-   H24
    19     18     17     45      9 ;     0.00   0.65084   3 ;    C15-   C14-   C13-   H17
    19     18     17     46      9 ;     0.00   0.65084   3 ;    C15-   C14-   C13-   H18
    19     20     21     22      9 ;     0.00   0.65084   3 ;    C15-   C16-   C17-    F1
    19     20     21     53      9 ;     0.00   0.65084   3 ;    C15-   C16-   C17-   H25
    19     20     21     54      9 ;     0.00   0.65084   3 ;    C15-   C16-   C17-   H26
    20     19     18     47      9 ;     0.00   0.54392   3 ;    C16-   C15-   C14-   H19
    20     19     18     48      9 ;     0.00   0.54392   3 ;    C16-   C15-   C14-   H20
    21     20     19     49      9 ;     0.00   0.54392   3 ;    C17-   C16-   C15-   H21
    21     20     19     50      9 ;     0.00   0.54392   3 ;    C17-   C16-   C15-   H22
    22     21     20     51      9 ;     0.00   0.37656   3 ;     F1-   C17-   C16-   H23
    22     21     20     52      9 ;     0.00   0.37656   3 ;     F1-   C17-   C16-   H24
    23     16     17     45      9 ;     0.00   0.00000   0 ;    C18-    N3-   C13-   H17
    23     16     17     46      9 ;     0.00   0.00000   0 ;    C18-    N3-   C13-   H18
    23     24     25     26      9 ;   180.00  15.16700   2 ;    C18-   C19-   C20-   C21
    23     24     25     56      9 ;   180.00  15.16700   2 ;    C18-   C19-   C20-   H28
    23     28     27     26      9 ;   180.00  15.16700   2 ;    C18-   C23-   C22-   C21
    23     28     27     58      9 ;   180.00  15.16700   2 ;    C18-   C23-   C22-   H30
    24     23     28     27      9 ;   180.00  15.16700   2 ;    C19-   C18-   C23-   C22
    24     25     26     27      9 ;   180.00  15.16700   2 ;    C19-   C20-   C21-   C22
    24     25     26     57      9 ;   180.00  15.16700   2 ;    C19-   C20-   C21-   H29
    25     24     23     28      9 ;   180.00  15.16700   2 ;    C20-   C19-   C18-   C23
    25     26     27     28      9 ;   180.00  15.16700   2 ;    C20-   C21-   C22-   C23
    25     26     27     58      9 ;   180.00  15.16700   2 ;    C20-   C21-   C22-   H30
    26     25     24     55      9 ;   180.00  15.16700   2 ;    C21-   C20-   C19-   H27
    27     26     25     56      9 ;   180.00  15.16700   2 ;    C22-   C21-   C20-   H28
    28     23     24     55      9 ;   180.00  15.16700   2 ;    C23-   C18-   C19-   H27
    28     27     26     57      9 ;   180.00  15.16700   2 ;    C23-   C22-   C21-   H29
    30      5      6     32      9 ;     0.00   0.50208   3 ;     H2-    C3-    C4-    H4
    31      5      6     32      9 ;     0.00   0.50208   3 ;     H3-    C3-    C4-    H4
    32      6      7     33      9 ;     0.00   0.50208   3 ;     H4-    C4-    C5-    H5
    32      6      7     34      9 ;     0.00   0.50208   3 ;     H4-    C4-    C5-    H6
    32      6     11     39      9 ;     0.00   0.50208   3 ;     H4-    C4-    C9-   H11
    32      6     11     40      9 ;     0.00   0.50208   3 ;     H4-    C4-    C9-   H12
    33      7      8     35      9 ;     0.00   0.50208   3 ;     H5-    C5-    C6-    H7
    34      7      8     35      9 ;     0.00   0.50208   3 ;     H6-    C5-    C6-    H7
    35      8      9     36      9 ;     0.00   0.50208   3 ;     H7-    C6-    C7-    H8
    35      8      9     37      9 ;     0.00   0.50208   3 ;     H7-    C6-    C7-    H9
    35      8     13     43      9 ;     0.00   0.50208   3 ;     H7-    C6-   C11-   H15
    35      8     13     44      9 ;     0.00   0.50208   3 ;     H7-    C6-   C11-   H16
    36      9     10     38      9 ;     0.00   0.50208   3 ;     H8-    C7-    C8-   H10
    37      9     10     38      9 ;     0.00   0.50208   3 ;     H9-    C7-    C8-   H10
    38     10     11     39      9 ;     0.00   0.50208   3 ;    H10-    C8-    C9-   H11
    38     10     11     40      9 ;     0.00   0.50208   3 ;    H10-    C8-    C9-   H12
    38     10     12     41      9 ;     0.00   0.50208   3 ;    H10-    C8-   C10-   H13
    38     10     12     42      9 ;     0.00   0.50208   3 ;    H10-    C8-   C10-   H14
    45     17     18     47      9 ;     0.00   0.65084   3 ;    H17-   C13-   C14-   H19
    45     17     18     48      9 ;     0.00   0.65084   3 ;    H17-   C13-   C14-   H20
    46     17     18     47      9 ;     0.00   0.65084   3 ;    H18-   C13-   C14-   H19
    46     17     18     48      9 ;     0.00   0.65084   3 ;    H18-   C13-   C14-   H20
    47     18     19     49      9 ;     0.00   0.50208   3 ;    H19-   C14-   C15-   H21
    47     18     19     50      9 ;     0.00   0.50208   3 ;    H19-   C14-   C15-   H22
    48     18     19     49      9 ;     0.00   0.50208   3 ;    H20-   C14-   C15-   H21
    48     18     19     50      9 ;     0.00   0.50208   3 ;    H20-   C14-   C15-   H22
    49     19     20     51      9 ;     0.00   0.50208   3 ;    H21-   C15-   C16-   H23
    49     19     20     52      9 ;     0.00   0.50208   3 ;    H21-   C15-   C16-   H24
    50     19     20     51      9 ;     0.00   0.50208   3 ;    H22-   C15-   C16-   H23
    50     19     20     52      9 ;     0.00   0.50208   3 ;    H22-   C15-   C16-   H24
    51     20     21     53      9 ;     0.00   0.65084   3 ;    H23-   C16-   C17-   H25
    51     20     21     54      9 ;     0.00   0.65084   3 ;    H23-   C16-   C17-   H26
    52     20     21     53      9 ;     0.00   0.65084   3 ;    H24-   C16-   C17-   H25
    52     20     21     54      9 ;     0.00   0.65084   3 ;    H24-   C16-   C17-   H26
    55     24     25     56      9 ;   180.00  15.16700   2 ;    H27-   C19-   C20-   H28
    56     25     26     57      9 ;   180.00  15.16700   2 ;    H28-   C20-   C21-   H29
    57     26     27     58      9 ;   180.00  15.16700   2 ;    H29-   C21-   C22-   H30

[ dihedrals ] ; impropers
; treated as propers in GROMACS to use correct AMBER analytical function
;    i      j      k      l   func   phase     kd      pn
     1      2      3     14      4 ;   180.00  43.93200   2 ;     O1-    C1-    N1-   C12
     2      4      3     29      4 ;   180.00   4.60240   2 ;     C1-    C2-    N1-    H1
     2     28     14     15      4 ;   180.00  43.93200   2 ;     C1-   C23-   C12-    N2
    17     23     16     15      4 ;   180.00   4.60240   2 ;    C13-   C18-    N3-    N2
    23     25     24     55      4 ;   180.00   4.60240   2 ;    C18-   C20-   C19-   H27
    23     27     28     14      4 ;   180.00   4.60240   2 ;    C18-   C22-   C23-   C12
    24     26     25     56      4 ;   180.00   4.60240   2 ;    C19-   C21-   C20-   H28
    24     28     23     16      4 ;   180.00  43.93200   2 ;    C19-   C23-   C18-    N3
    25     27     26     57      4 ;   180.00   4.60240   2 ;    C20-   C22-   C21-   H29
    26     28     27     58      4 ;   180.00   4.60240   2 ;    C21-   C23-   C22-   H30
